<?xml version="1.0"?>
<VTKFile type="UnstructuredGrid" version="0.1" byte_order="LittleEndian">
<!--This file was created by meshio v5.3.5-->
<UnstructuredGrid>
<Piece NumberOfPoints="11" NumberOfCells="10">
<Points>
<DataArray type="Float64" Name="Points" NumberOfComponents="3" format="ascii">
0.00000000000e+00
0.00000000000e+00
0.00000000000e+00
5.00000000000e-03
0.00000000000e+00
0.00000000000e+00
1.00000000000e-02
0.00000000000e+00
0.00000000000e+00
1.50000000000e-02
0.00000000000e+00
0.00000000000e+00
2.00000000000e-02
0.00000000000e+00
0.00000000000e+00
2.50000000000e-02
0.00000000000e+00
0.00000000000e+00
3.00000000000e-02
0.00000000000e+00
0.00000000000e+00
3.50000000000e-02
0.00000000000e+00
0.00000000000e+00
4.00000000000e-02
0.00000000000e+00
0.00000000000e+00
4.50000000000e-02
0.00000000000e+00
0.00000000000e+00
5.00000000000e-02
0.00000000000e+00
0.00000000000e+00

</DataArray>
</Points>
<Cells>
<DataArray type="Int64" Name="connectivity" format="ascii">
0
1
1
2
2
3
3
4
4
5
5
6
6
7
7
8
8
9
9
10

</DataArray>
<DataArray type="Int64" Name="offsets" format="ascii">
2
4
6
8
10
12
14
16
18
20

</DataArray>
<DataArray type="Int64" Name="types" format="ascii">
3
3
3
3
3
3
3
3
3
3

</DataArray>
</Cells>
<PointData>
<DataArray type="UInt64" Name="bulk_node_ids" format="ascii">
0
1
2
3
4
5
6
7
8
9
10

</DataArray>
</PointData>
</Piece>
</UnstructuredGrid>
</VTKFile>
