<?xml version="1.0"?>
<VTKFile type="UnstructuredGrid" version="0.1" byte_order="LittleEndian">
<!--This file was created by meshio v5.3.5-->
<UnstructuredGrid>
<Piece NumberOfPoints="41" NumberOfCells="40">
<Points>
<DataArray type="Float64" Name="Points" NumberOfComponents="3" format="ascii">
5.00000000000e-02
0.00000000000e+00
0.00000000000e+00
5.00000000000e-02
2.50000000000e-03
0.00000000000e+00
5.00000000000e-02
5.00000000000e-03
0.00000000000e+00
5.00000000000e-02
7.50000000000e-03
0.00000000000e+00
5.00000000000e-02
1.00000000000e-02
0.00000000000e+00
5.00000000000e-02
1.25000000000e-02
0.00000000000e+00
5.00000000000e-02
1.50000000000e-02
0.00000000000e+00
5.00000000000e-02
1.75000000000e-02
0.00000000000e+00
5.00000000000e-02
2.00000000000e-02
0.00000000000e+00
5.00000000000e-02
2.25000000000e-02
0.00000000000e+00
5.00000000000e-02
2.50000000000e-02
0.00000000000e+00
5.00000000000e-02
2.75000000000e-02
0.00000000000e+00
5.00000000000e-02
3.00000000000e-02
0.00000000000e+00
5.00000000000e-02
3.25000000000e-02
0.00000000000e+00
5.00000000000e-02
3.50000000000e-02
0.00000000000e+00
5.00000000000e-02
3.75000000000e-02
0.00000000000e+00
5.00000000000e-02
4.00000000000e-02
0.00000000000e+00
5.00000000000e-02
4.25000000000e-02
0.00000000000e+00
5.00000000000e-02
4.50000000000e-02
0.00000000000e+00
5.00000000000e-02
4.75000000000e-02
0.00000000000e+00
5.00000000000e-02
5.00000000000e-02
0.00000000000e+00
5.00000000000e-02
5.25000000000e-02
0.00000000000e+00
5.00000000000e-02
5.50000000000e-02
0.00000000000e+00
5.00000000000e-02
5.75000000000e-02
0.00000000000e+00
5.00000000000e-02
6.00000000000e-02
0.00000000000e+00
5.00000000000e-02
6.25000000000e-02
0.00000000000e+00
5.00000000000e-02
6.50000000000e-02
0.00000000000e+00
5.00000000000e-02
6.75000000000e-02
0.00000000000e+00
5.00000000000e-02
7.00000000000e-02
0.00000000000e+00
5.00000000000e-02
7.25000000000e-02
0.00000000000e+00
5.00000000000e-02
7.50000000000e-02
0.00000000000e+00
5.00000000000e-02
7.75000000000e-02
0.00000000000e+00
5.00000000000e-02
8.00000000000e-02
0.00000000000e+00
5.00000000000e-02
8.25000000000e-02
0.00000000000e+00
5.00000000000e-02
8.50000000000e-02
0.00000000000e+00
5.00000000000e-02
8.75000000000e-02
0.00000000000e+00
5.00000000000e-02
9.00000000000e-02
0.00000000000e+00
5.00000000000e-02
9.25000000000e-02
0.00000000000e+00
5.00000000000e-02
9.50000000000e-02
0.00000000000e+00
5.00000000000e-02
9.75000000000e-02
0.00000000000e+00
5.00000000000e-02
1.00000000000e-01
0.00000000000e+00

</DataArray>
</Points>
<Cells>
<DataArray type="Int64" Name="connectivity" format="ascii">
0
1
1
2
2
3
3
4
4
5
5
6
6
7
7
8
8
9
9
10
10
11
11
12
12
13
13
14
14
15
15
16
16
17
17
18
18
19
19
20
20
21
21
22
22
23
23
24
24
25
25
26
26
27
27
28
28
29
29
30
30
31
31
32
32
33
33
34
34
35
35
36
36
37
37
38
38
39
39
40

</DataArray>
<DataArray type="Int64" Name="offsets" format="ascii">
2
4
6
8
10
12
14
16
18
20
22
24
26
28
30
32
34
36
38
40
42
44
46
48
50
52
54
56
58
60
62
64
66
68
70
72
74
76
78
80

</DataArray>
<DataArray type="Int64" Name="types" format="ascii">
3
3
3
3
3
3
3
3
3
3
3
3
3
3
3
3
3
3
3
3
3
3
3
3
3
3
3
3
3
3
3
3
3
3
3
3
3
3
3
3

</DataArray>
</Cells>
<PointData>
<DataArray type="UInt64" Name="bulk_node_ids" format="ascii">
10
21
32
43
54
65
76
87
98
109
120
131
142
153
164
175
186
197
208
219
230
241
252
263
274
285
296
307
318
329
340
351
362
373
384
395
406
417
428
439
450

</DataArray>
</PointData>
</Piece>
</UnstructuredGrid>
</VTKFile>
