<?xml version="1.0"?>
<VTKFile type="UnstructuredGrid" version="0.1" byte_order="LittleEndian">
<!--This file was created by meshio v5.3.5-->
<UnstructuredGrid>
<Piece NumberOfPoints="11" NumberOfCells="10">
<Points>
<DataArray type="Float64" Name="Points" NumberOfComponents="3" format="ascii">
0.00000000000e+00
1.00000000000e-01
0.00000000000e+00
5.00000000000e-03
1.00000000000e-01
0.00000000000e+00
1.00000000000e-02
1.00000000000e-01
0.00000000000e+00
1.50000000000e-02
1.00000000000e-01
0.00000000000e+00
2.00000000000e-02
1.00000000000e-01
0.00000000000e+00
2.50000000000e-02
1.00000000000e-01
0.00000000000e+00
3.00000000000e-02
1.00000000000e-01
0.00000000000e+00
3.50000000000e-02
1.00000000000e-01
0.00000000000e+00
4.00000000000e-02
1.00000000000e-01
0.00000000000e+00
4.50000000000e-02
1.00000000000e-01
0.00000000000e+00
5.00000000000e-02
1.00000000000e-01
0.00000000000e+00

</DataArray>
</Points>
<Cells>
<DataArray type="Int64" Name="connectivity" format="ascii">
1
0
2
1
3
2
4
3
5
4
6
5
7
6
8
7
9
8
10
9

</DataArray>
<DataArray type="Int64" Name="offsets" format="ascii">
2
4
6
8
10
12
14
16
18
20

</DataArray>
<DataArray type="Int64" Name="types" format="ascii">
3
3
3
3
3
3
3
3
3
3

</DataArray>
</Cells>
<PointData>
<DataArray type="UInt64" Name="bulk_node_ids" format="ascii">
440
441
442
443
444
445
446
447
448
449
450

</DataArray>
</PointData>
</Piece>
</UnstructuredGrid>
</VTKFile>
