<?xml version="1.0"?>
<VTKFile type="UnstructuredGrid" version="0.1" byte_order="LittleEndian">
<!--This file was created by meshio v5.3.5-->
<UnstructuredGrid>
<Piece NumberOfPoints="41" NumberOfCells="40">
<Points>
<DataArray type="Float64" Name="Points" NumberOfComponents="3" format="ascii">
0.00000000000e+00
0.00000000000e+00
0.00000000000e+00
0.00000000000e+00
2.50000000000e-03
0.00000000000e+00
0.00000000000e+00
5.00000000000e-03
0.00000000000e+00
0.00000000000e+00
7.50000000000e-03
0.00000000000e+00
0.00000000000e+00
1.00000000000e-02
0.00000000000e+00
0.00000000000e+00
1.25000000000e-02
0.00000000000e+00
0.00000000000e+00
1.50000000000e-02
0.00000000000e+00
0.00000000000e+00
1.75000000000e-02
0.00000000000e+00
0.00000000000e+00
2.00000000000e-02
0.00000000000e+00
0.00000000000e+00
2.25000000000e-02
0.00000000000e+00
0.00000000000e+00
2.50000000000e-02
0.00000000000e+00
0.00000000000e+00
2.75000000000e-02
0.00000000000e+00
0.00000000000e+00
3.00000000000e-02
0.00000000000e+00
0.00000000000e+00
3.25000000000e-02
0.00000000000e+00
0.00000000000e+00
3.50000000000e-02
0.00000000000e+00
0.00000000000e+00
3.75000000000e-02
0.00000000000e+00
0.00000000000e+00
4.00000000000e-02
0.00000000000e+00
0.00000000000e+00
4.25000000000e-02
0.00000000000e+00
0.00000000000e+00
4.50000000000e-02
0.00000000000e+00
0.00000000000e+00
4.75000000000e-02
0.00000000000e+00
0.00000000000e+00
5.00000000000e-02
0.00000000000e+00
0.00000000000e+00
5.25000000000e-02
0.00000000000e+00
0.00000000000e+00
5.50000000000e-02
0.00000000000e+00
0.00000000000e+00
5.75000000000e-02
0.00000000000e+00
0.00000000000e+00
6.00000000000e-02
0.00000000000e+00
0.00000000000e+00
6.25000000000e-02
0.00000000000e+00
0.00000000000e+00
6.50000000000e-02
0.00000000000e+00
0.00000000000e+00
6.75000000000e-02
0.00000000000e+00
0.00000000000e+00
7.00000000000e-02
0.00000000000e+00
0.00000000000e+00
7.25000000000e-02
0.00000000000e+00
0.00000000000e+00
7.50000000000e-02
0.00000000000e+00
0.00000000000e+00
7.75000000000e-02
0.00000000000e+00
0.00000000000e+00
8.00000000000e-02
0.00000000000e+00
0.00000000000e+00
8.25000000000e-02
0.00000000000e+00
0.00000000000e+00
8.50000000000e-02
0.00000000000e+00
0.00000000000e+00
8.75000000000e-02
0.00000000000e+00
0.00000000000e+00
9.00000000000e-02
0.00000000000e+00
0.00000000000e+00
9.25000000000e-02
0.00000000000e+00
0.00000000000e+00
9.50000000000e-02
0.00000000000e+00
0.00000000000e+00
9.75000000000e-02
0.00000000000e+00
0.00000000000e+00
1.00000000000e-01
0.00000000000e+00

</DataArray>
</Points>
<Cells>
<DataArray type="Int64" Name="connectivity" format="ascii">
1
0
2
1
3
2
4
3
5
4
6
5
7
6
8
7
9
8
10
9
11
10
12
11
13
12
14
13
15
14
16
15
17
16
18
17
19
18
20
19
21
20
22
21
23
22
24
23
25
24
26
25
27
26
28
27
29
28
30
29
31
30
32
31
33
32
34
33
35
34
36
35
37
36
38
37
39
38
40
39

</DataArray>
<DataArray type="Int64" Name="offsets" format="ascii">
2
4
6
8
10
12
14
16
18
20
22
24
26
28
30
32
34
36
38
40
42
44
46
48
50
52
54
56
58
60
62
64
66
68
70
72
74
76
78
80

</DataArray>
<DataArray type="Int64" Name="types" format="ascii">
3
3
3
3
3
3
3
3
3
3
3
3
3
3
3
3
3
3
3
3
3
3
3
3
3
3
3
3
3
3
3
3
3
3
3
3
3
3
3
3

</DataArray>
</Cells>
<PointData>
<DataArray type="UInt64" Name="bulk_node_ids" format="ascii">
0
11
22
33
44
55
66
77
88
99
110
121
132
143
154
165
176
187
198
209
220
231
242
253
264
275
286
297
308
319
330
341
352
363
374
385
396
407
418
429
440

</DataArray>
</PointData>
</Piece>
</UnstructuredGrid>
</VTKFile>
