<?xml version="1.0"?>
<VTKFile type="UnstructuredGrid" version="1.0" byte_order="LittleEndian" header_type="UInt64">
  <UnstructuredGrid>
    <Piece NumberOfPoints="4" NumberOfCells="1">
      <PointData Scalars="bulk_node_ids">
        <DataArray type="UInt64" Name="bulk_node_ids" format="ascii">0 1 2 3</DataArray>
      </PointData>
      <CellData Scalars="MaterialIDs">
        <DataArray type="Int32" Name="MaterialIDs" format="ascii">0</DataArray>
        <DataArray type="UInt64" Name="bulk_element_ids" format="ascii">0</DataArray>
      </CellData>
      <Points>
        <DataArray type="Float64" Name="Points" NumberOfComponents="3" format="ascii">
          0.0 0.0 0.0
          0.01 0.0 0.0
          0.0 0.01 0.0
          0.01 0.01 0.0
        </DataArray>
      </Points>
      <Cells>
        <DataArray type="Int64" Name="connectivity" format="ascii">0 1 3 2</DataArray>
        <DataArray type="Int64" Name="offsets" format="ascii">4</DataArray>
        <DataArray type="UInt8" Name="types" format="ascii">9</DataArray>
      </Cells>
    </Piece>
  </UnstructuredGrid>
</VTKFile>
