<?xml version="1.0"?>
<VTKFile type="UnstructuredGrid" version="0.1" byte_order="LittleEndian" header_type="UInt32" compressor="vtkZLibDataCompressor">
  <UnstructuredGrid>
    <Piece NumberOfPoints="26" NumberOfCells="25">
      <PointData>
        <DataArray type="UInt64" Name="bulk_node_ids" format="ascii" RangeMin="1040" RangeMax="1065">
          1040 1041 1042 1043 1044 1045
          1046 1047 1048 1049 1050 1051
          1052 1053 1054 1055 1056 1057
          1058 1059 1060 1061 1062 1063
          1064 1065
        </DataArray>
      </PointData>
      <CellData>
        <DataArray type="UInt64" Name="bulk_element_ids" format="ascii" RangeMin="975" RangeMax="999">
          975 976 977 978 979 980
          981 982 983 984 985 986
          987 988 989 990 991 992
          993 994 995 996 997 998
          999
        </DataArray>
        <DataArray type="UInt8" Name="bulk_face_ids" format="ascii" RangeMin="2" RangeMax="2">
          2 2 2 2 2 2
          2 2 2 2 2 2
          2 2 2 2 2 2
          2 2 2 2 2 2
          2
        </DataArray>
      </CellData>
      <Points>
        <DataArray type="Float64" Name="Points" NumberOfComponents="3" format="ascii" RangeMin="0.07" RangeMax="0.07433034373659253">
          0 0.07 0 0.001 0.07 0
          0.002 0.07 0 0.003 0.07 0
          0.004 0.07 0 0.005 0.07 0
          0.006 0.07 0 0.007 0.07 0
          0.008 0.07 0 0.009000000000000001 0.07 0
          0.01 0.07 0 0.011 0.07 0
          0.012 0.07 0 0.013000000000000001 0.07 0
          0.014 0.07 0 0.015 0.07 0
          0.016 0.07 0 0.017 0.07 0
          0.018000000000000002 0.07 0 0.019 0.07 0
          0.02 0.07 0 0.021 0.07 0
          0.022 0.07 0 0.023 0.07 0
          0.024 0.07 0 0.025 0.07 0
          <InformationKey name="L2_NORM_RANGE" location="vtkDataArray" length="2">
            <Value index="0">
              0.07
            </Value>
            <Value index="1">
              0.074330343737
            </Value>
          </InformationKey>
        </DataArray>
      </Points>
      <Cells>
        <DataArray type="Int64" Name="connectivity" format="ascii" RangeMin="0" RangeMax="25">
          0 1 1 2 2 3
          3 4 4 5 5 6
          6 7 7 8 8 9
          9 10 10 11 11 12
          12 13 13 14 14 15
          15 16 16 17 17 18
          18 19 19 20 20 21
          21 22 22 23 23 24
          24 25
        </DataArray>
        <DataArray type="Int64" Name="offsets" format="ascii" RangeMin="2" RangeMax="50">
          2 4 6 8 10 12
          14 16 18 20 22 24
          26 28 30 32 34 36
          38 40 42 44 46 48
          50
        </DataArray>
        <DataArray type="UInt8" Name="types" format="ascii" RangeMin="3" RangeMax="3">
          3 3 3 3 3 3
          3 3 3 3 3 3
          3 3 3 3 3 3
          3 3 3 3 3 3
          3
        </DataArray>
      </Cells>
    </Piece>
  </UnstructuredGrid>
</VTKFile>
