<?xml version="1.0"?>
<VTKFile type="UnstructuredGrid" version="0.1" byte_order="LittleEndian" header_type="UInt32" compressor="vtkZLibDataCompressor">
  <UnstructuredGrid>
    <Piece NumberOfPoints="26" NumberOfCells="25">
      <PointData>
        <DataArray type="UInt64" Name="bulk_node_ids" format="ascii" RangeMin="0" RangeMax="25">
          0 1 2 3 4 5
          6 7 8 9 10 11
          12 13 14 15 16 17
          18 19 20 21 22 23
          24 25
        </DataArray>
      </PointData>
      <CellData>
        <DataArray type="UInt64" Name="bulk_element_ids" format="ascii" RangeMin="0" RangeMax="24">
          0 1 2 3 4 5
          6 7 8 9 10 11
          12 13 14 15 16 17
          18 19 20 21 22 23
          24
        </DataArray>
        <DataArray type="UInt8" Name="bulk_face_ids" format="ascii" RangeMin="0" RangeMax="0">
          0 0 0 0 0 0
          0 0 0 0 0 0
          0 0 0 0 0 0
          0 0 0 0 0 0
          0
        </DataArray>
      </CellData>
      <Points>
        <DataArray type="Float64" Name="Points" NumberOfComponents="3" format="ascii" RangeMin="0" RangeMax="0.025">
          0 0 0 0.001 0 0
          0.002 0 0 0.003 0 0
          0.004 0 0 0.005 0 0
          0.006 0 0 0.007 0 0
          0.008 0 0 0.009000000000000001 0 0
          0.01 0 0 0.011 0 0
          0.012 0 0 0.013000000000000001 0 0
          0.014 0 0 0.015 0 0
          0.016 0 0 0.017 0 0
          0.018000000000000002 0 0 0.019 0 0
          0.02 0 0 0.021 0 0
          0.022 0 0 0.023 0 0
          0.024 0 0 0.025 0 0
          <InformationKey name="L2_NORM_RANGE" location="vtkDataArray" length="2">
            <Value index="0">
              0
            </Value>
            <Value index="1">
              0.025
            </Value>
          </InformationKey>
        </DataArray>
      </Points>
      <Cells>
        <DataArray type="Int64" Name="connectivity" format="ascii" RangeMin="0" RangeMax="25">
          0 1 1 2 2 3
          3 4 4 5 5 6
          6 7 7 8 8 9
          9 10 10 11 11 12
          12 13 13 14 14 15
          15 16 16 17 17 18
          18 19 19 20 20 21
          21 22 22 23 23 24
          24 25
        </DataArray>
        <DataArray type="Int64" Name="offsets" format="ascii" RangeMin="2" RangeMax="50">
          2 4 6 8 10 12
          14 16 18 20 22 24
          26 28 30 32 34 36
          38 40 42 44 46 48
          50
        </DataArray>
        <DataArray type="UInt8" Name="types" format="ascii" RangeMin="3" RangeMax="3">
          3 3 3 3 3 3
          3 3 3 3 3 3
          3 3 3 3 3 3
          3 3 3 3 3 3
          3
        </DataArray>
      </Cells>
    </Piece>
  </UnstructuredGrid>
</VTKFile>
