<?xml version="1.0"?>
<VTKFile type="UnstructuredGrid" version="0.1" byte_order="LittleEndian" header_type="UInt32" compressor="vtkZLibDataCompressor">
  <UnstructuredGrid>
    <Piece NumberOfPoints="41" NumberOfCells="40">
      <PointData>
        <DataArray type="UInt64" Name="bulk_node_ids" format="ascii" RangeMin="25" RangeMax="1065">
          25 51 77 103 129 155
          181 207 233 259 285 311
          337 363 389 415 441 467
          493 519 545 571 597 623
          649 675 701 727 753 779
          805 831 857 883 909 935
          961 987 1013 1039 1065
        </DataArray>
      </PointData>
      <CellData>
        <DataArray type="UInt64" Name="bulk_element_ids" format="ascii" RangeMin="24" RangeMax="999">
          24 49 74 99 124 149
          174 199 224 249 274 299
          324 349 374 399 424 449
          474 499 524 549 574 599
          624 649 674 699 724 749
          774 799 824 849 874 899
          924 949 974 999
        </DataArray>
        <DataArray type="UInt8" Name="bulk_face_ids" format="ascii" RangeMin="1" RangeMax="1">
          1 1 1 1 1 1
          1 1 1 1 1 1
          1 1 1 1 1 1
          1 1 1 1 1 1
          1 1 1 1 1 1
          1 1 1 1 1 1
          1 1 1 1
        </DataArray>
      </CellData>
      <Points>
        <DataArray type="Float64" Name="Points" NumberOfComponents="3" format="ascii" RangeMin="0.025" RangeMax="0.07433034373659253">
          0.025 0 0 0.025 0.0017500000000000003 0
          0.025 0.0035000000000000005 0 0.025 0.005250000000000001 0
          0.025 0.007000000000000001 0 0.025 0.00875 0
          0.025 0.010500000000000002 0 0.025 0.012250000000000002 0
          0.025 0.014000000000000002 0 0.025 0.015750000000000004 0
          0.025 0.0175 0 0.025 0.019250000000000003 0
          0.025 0.021000000000000005 0 0.025 0.022750000000000003 0
          0.025 0.024500000000000004 0 0.025 0.026250000000000002 0
          0.025 0.028000000000000004 0 0.025 0.029750000000000006 0
          0.025 0.03150000000000001 0 0.025 0.03325 0
          0.025 0.035 0 0.025 0.036750000000000005 0
          0.025 0.038500000000000006 0 0.025 0.04025000000000001 0
          0.025 0.04200000000000001 0 0.025 0.043750000000000004 0
          0.025 0.045500000000000006 0 0.025 0.04725000000000001 0
          0.025 0.04900000000000001 0 0.025 0.05075000000000001 0
          0.025 0.052500000000000005 0 0.025 0.05425000000000001 0
          0.025 0.05600000000000001 0 0.025 0.05775000000000001 0
          0.025 0.05950000000000001 0 0.025 0.061250000000000006 0
          0.025 0.06300000000000001 0 0.025 0.06475000000000002 0
          0.025 0.0665 0 0.025 0.06825 0
          0.025 0.07 0
          <InformationKey name="L2_NORM_RANGE" location="vtkDataArray" length="2">
            <Value index="0">
              0.025
            </Value>
            <Value index="1">
              0.074330343737
            </Value>
          </InformationKey>
        </DataArray>
      </Points>
      <Cells>
        <DataArray type="Int64" Name="connectivity" format="ascii" RangeMin="0" RangeMax="40">
          0 1 1 2 2 3
          3 4 4 5 5 6
          6 7 7 8 8 9
          9 10 10 11 11 12
          12 13 13 14 14 15
          15 16 16 17 17 18
          18 19 19 20 20 21
          21 22 22 23 23 24
          24 25 25 26 26 27
          27 28 28 29 29 30
          30 31 31 32 32 33
          33 34 34 35 35 36
          36 37 37 38 38 39
          39 40
        </DataArray>
        <DataArray type="Int64" Name="offsets" format="ascii" RangeMin="2" RangeMax="80">
          2 4 6 8 10 12
          14 16 18 20 22 24
          26 28 30 32 34 36
          38 40 42 44 46 48
          50 52 54 56 58 60
          62 64 66 68 70 72
          74 76 78 80
        </DataArray>
        <DataArray type="UInt8" Name="types" format="ascii" RangeMin="3" RangeMax="3">
          3 3 3 3 3 3
          3 3 3 3 3 3
          3 3 3 3 3 3
          3 3 3 3 3 3
          3 3 3 3 3 3
          3 3 3 3 3 3
          3 3 3 3
        </DataArray>
      </Cells>
    </Piece>
  </UnstructuredGrid>
</VTKFile>
