<?xml version="1.0"?>
<VTKFile type="UnstructuredGrid" version="0.1" byte_order="LittleEndian">
<!--This file was created by meshio v5.3.5-->
<UnstructuredGrid>
<Piece NumberOfPoints="41" NumberOfCells="40">
<Points>
<DataArray type="Float64" Name="Points" NumberOfComponents="3" format="ascii">
0.00000000000e+00
0.00000000000e+00
0.00000000000e+00
0.00000000000e+00
3.12500000000e-04
0.00000000000e+00
0.00000000000e+00
6.25000000000e-04
0.00000000000e+00
0.00000000000e+00
9.37500000000e-04
0.00000000000e+00
0.00000000000e+00
1.25000000000e-03
0.00000000000e+00
0.00000000000e+00
1.56250000000e-03
0.00000000000e+00
0.00000000000e+00
1.87500000000e-03
0.00000000000e+00
0.00000000000e+00
2.18750000000e-03
0.00000000000e+00
0.00000000000e+00
2.50000000000e-03
0.00000000000e+00
0.00000000000e+00
2.81250000000e-03
0.00000000000e+00
0.00000000000e+00
3.12500000000e-03
0.00000000000e+00
0.00000000000e+00
3.43750000000e-03
0.00000000000e+00
0.00000000000e+00
3.75000000000e-03
0.00000000000e+00
0.00000000000e+00
4.06250000000e-03
0.00000000000e+00
0.00000000000e+00
4.37500000000e-03
0.00000000000e+00
0.00000000000e+00
4.68750000000e-03
0.00000000000e+00
0.00000000000e+00
5.00000000000e-03
0.00000000000e+00
0.00000000000e+00
5.31250000000e-03
0.00000000000e+00
0.00000000000e+00
5.62500000000e-03
0.00000000000e+00
0.00000000000e+00
5.93750000000e-03
0.00000000000e+00
0.00000000000e+00
6.25000000000e-03
0.00000000000e+00
0.00000000000e+00
6.56250000000e-03
0.00000000000e+00
0.00000000000e+00
6.87500000000e-03
0.00000000000e+00
0.00000000000e+00
7.18750000000e-03
0.00000000000e+00
0.00000000000e+00
7.50000000000e-03
0.00000000000e+00
0.00000000000e+00
7.81250000000e-03
0.00000000000e+00
0.00000000000e+00
8.12500000000e-03
0.00000000000e+00
0.00000000000e+00
8.43750000000e-03
0.00000000000e+00
0.00000000000e+00
8.75000000000e-03
0.00000000000e+00
0.00000000000e+00
9.06250000000e-03
0.00000000000e+00
0.00000000000e+00
9.37500000000e-03
0.00000000000e+00
0.00000000000e+00
9.68750000000e-03
0.00000000000e+00
0.00000000000e+00
1.00000000000e-02
0.00000000000e+00
0.00000000000e+00
1.03125000000e-02
0.00000000000e+00
0.00000000000e+00
1.06250000000e-02
0.00000000000e+00
0.00000000000e+00
1.09375000000e-02
0.00000000000e+00
0.00000000000e+00
1.12500000000e-02
0.00000000000e+00
0.00000000000e+00
1.15625000000e-02
0.00000000000e+00
0.00000000000e+00
1.18750000000e-02
0.00000000000e+00
0.00000000000e+00
1.21875000000e-02
0.00000000000e+00
0.00000000000e+00
1.25000000000e-02
0.00000000000e+00

</DataArray>
</Points>
<Cells>
<DataArray type="Int64" Name="connectivity" format="ascii">
1
0
2
1
3
2
4
3
5
4
6
5
7
6
8
7
9
8
10
9
11
10
12
11
13
12
14
13
15
14
16
15
17
16
18
17
19
18
20
19
21
20
22
21
23
22
24
23
25
24
26
25
27
26
28
27
29
28
30
29
31
30
32
31
33
32
34
33
35
34
36
35
37
36
38
37
39
38
40
39

</DataArray>
<DataArray type="Int64" Name="offsets" format="ascii">
2
4
6
8
10
12
14
16
18
20
22
24
26
28
30
32
34
36
38
40
42
44
46
48
50
52
54
56
58
60
62
64
66
68
70
72
74
76
78
80

</DataArray>
<DataArray type="Int64" Name="types" format="ascii">
3
3
3
3
3
3
3
3
3
3
3
3
3
3
3
3
3
3
3
3
3
3
3
3
3
3
3
3
3
3
3
3
3
3
3
3
3
3
3
3

</DataArray>
</Cells>
<PointData>
<DataArray type="UInt64" Name="bulk_node_ids" format="ascii">
0
9
18
27
36
45
54
63
72
81
90
99
108
117
126
135
144
153
162
171
180
189
198
207
216
225
234
243
252
261
270
279
288
297
306
315
324
333
342
351
360

</DataArray>
</PointData>
</Piece>
</UnstructuredGrid>
</VTKFile>
